# vtk DataFile Version 4.1
vtk output
ASCII
DATASET POLYDATA
POINTS 1264 float
223.502 247.046 63 224.502 247.046 63 225.502 247.046 63 
226.502 247.046 63 222.502 248.046 63 223.502 248.046 63 
224.502 248.046 63 225.502 248.046 63 226.502 248.046 63 
227.502 248.046 63 221.502 249.046 63 222.502 249.046 63 
223.502 249.046 63 224.502 249.046 63 225.502 249.046 63 
226.502 249.046 63 227.502 249.046 63 228.502 249.046 63 
220.502 250.046 63 221.502 250.046 63 222.502 250.046 63 
223.502 250.046 63 224.502 250.046 63 225.502 250.046 63 
226.502 250.046 63 227.502 250.046 63 228.502 250.046 63 
220.502 251.046 63 221.502 251.046 63 222.502 251.046 63 
223.502 251.046 63 224.502 251.046 63 225.502 251.046 63 
226.502 251.046 63 227.502 251.046 63 228.502 251.046 63 
219.502 252.046 63 220.502 252.046 63 221.502 252.046 63 
222.502 252.046 63 223.502 252.046 63 224.502 252.046 63 
225.502 252.046 63 226.502 252.046 63 227.502 252.046 63 
228.502 252.046 63 219.502 253.046 63 220.502 253.046 63 
221.502 253.046 63 222.502 253.046 63 223.502 253.046 63 
224.502 253.046 63 225.502 253.046 63 226.502 253.046 63 
227.502 253.046 63 218.502 254.046 63 219.502 254.046 63 
220.502 254.046 63 221.502 254.046 63 222.502 254.046 63 
223.502 254.046 63 224.502 254.046 63 225.502 254.046 63 
226.502 254.046 63 219.502 255.046 63 220.502 255.046 63 
221.502 255.046 63 222.502 255.046 63 223.502 255.046 63 
224.502 255.046 63 225.502 255.046 63 219.502 256.046 63 
220.502 256.046 63 221.502 256.046 63 222.502 256.046 63 
223.502 256.046 63 224.502 256.046 63 225.502 256.046 63 
220.502 257.046 63 221.502 257.046 63 222.502 257.046 63 
223.502 257.046 63 224.502 257.046 63 254.502 320.046 63 
252.502 321.046 63 253.502 321.046 63 254.502 321.046 63 
255.502 321.046 63 256.502 321.046 63 251.502 322.046 63 
252.502 322.046 63 253.502 322.046 63 254.502 322.046 63 
255.502 322.046 63 256.502 322.046 63 257.502 322.046 63 
251.502 323.046 63 252.502 323.046 63 253.502 323.046 63 
254.502 323.046 63 255.502 323.046 63 256.502 323.046 63 
257.502 323.046 63 258.502 323.046 63 251.502 324.046 63 
252.502 324.046 63 253.502 324.046 63 254.502 324.046 63 
255.502 324.046 63 256.502 324.046 63 257.502 324.046 63 
258.502 324.046 63 251.502 325.046 63 252.502 325.046 63 
253.502 325.046 63 254.502 325.046 63 255.502 325.046 63 
256.502 325.046 63 257.502 325.046 63 258.502 325.046 63 
251.502 326.046 63 252.502 326.046 63 253.502 326.046 63 
254.502 326.046 63 255.502 326.046 63 256.502 326.046 63 
257.502 326.046 63 258.502 326.046 63 259.502 326.046 63 
252.502 327.046 63 253.502 327.046 63 254.502 327.046 63 
255.502 327.046 63 256.502 327.046 63 257.502 327.046 63 
258.502 327.046 63 259.502 327.046 63 252.502 328.046 63 
253.502 328.046 63 254.502 328.046 63 255.502 328.046 63 
256.502 328.046 63 257.502 328.046 63 258.502 328.046 63 
259.502 328.046 63 253.502 329.046 63 254.502 329.046 63 
255.502 329.046 63 256.502 329.046 63 257.502 329.046 63 
258.502 329.046 63 254.502 330.046 63 255.502 330.046 63 
256.502 330.046 63 257.502 330.046 63 256.502 331.046 63 
223.502 247.009 63 224.502 246.546 63 225.502 246.633 63 
226.502 246.719 63 223.422 247.046 63 222.502 247.479 63 
223.502 247.046 63.0085 224.502 247.046 63.1259 225.502 247.046 63.1159 
226.896 247.046 63 226.502 247.046 63.1032 227.502 247.549 63 
221.942 248.046 63 221.502 248.574 63 222.502 248.046 63.1198 
223.502 248.046 63.2396 224.502 248.046 63.3779 225.502 248.046 63.3959 
226.502 248.046 63.4182 228.098 248.046 63 227.502 248.046 63.1935 
228.502 248.653 63 221.108 249.046 63 220.502 249.892 63 
221.502 249.046 63.0895 222.502 249.046 63.3092 223.502 249.046 63.4707 
224.502 249.046 63.6299 225.502 249.046 63.676 226.502 249.046 63.7237 
227.502 249.046 63.532 228.72 249.046 63 228.502 249.046 63.1438 
220.391 250.046 63 220.502 250.046 63.0275 221.502 250.046 63.2699 
222.502 250.046 63.4996 223.502 250.046 63.7018 224.502 250.046 63.8819 
225.502 250.046 63.956 227.502 250.046 63.9534 228.97 250.046 63 
228.502 250.046 63.6092 219.699 251.046 63 219.502 251.339 63 
220.502 251.046 63.2167 221.502 251.046 63.4737 222.502 251.046 63.7157 
223.502 251.046 63.929 228.881 251.046 63 219.024 252.046 63 
219.502 252.046 63.1344 220.502 252.046 63.4372 221.502 252.046 63.7119 
222.502 252.046 63.9684 228.513 252.046 63 228.502 252.063 63 
229.502 252.046 63.6901 218.607 253.046 63 218.502 253.596 63 
219.502 253.046 63.3088 220.502 253.046 63.6776 221.502 253.046 63.999 
227.844 253.046 63 227.502 253.45 63 228.502 253.046 63.2611 
229.502 253.046 63.6579 218.416 254.046 63 218.502 254.982 63 
218.502 254.046 63.0432 219.502 254.046 63.5441 226.997 254.046 63 
226.502 254.676 63 227.502 254.046 63.1464 228.502 254.046 63.4364 
229.502 254.046 63.7264 218.508 255.046 63 219.502 255.046 63.943 
226.21 255.046 63 226.502 255.046 63.0732 227.502 255.046 63.3242 
228.502 255.046 63.5753 229.502 255.046 63.8264 218.93 256.046 63 
219.502 256.764 63 225.508 256.046 63 225.502 256.053 63 
226.502 256.046 63.2486 227.502 256.046 63.4848 228.502 256.046 63.7211 
229.502 256.046 63.962 218.502 257.046 63.7394 219.767 257.046 63 
219.502 257.046 63.1345 220.502 257.668 63 221.502 257.851 63 
222.502 258.03 63 223.502 257.614 63 224.65 257.046 63 
224.502 257.195 63 225.502 257.046 63.2224 226.502 257.046 63.4802 
227.502 257.046 63.7182 228.502 257.046 63.9316 217.502 258.046 63.9768 
218.502 258.046 63.6776 219.502 258.046 63.3709 220.502 258.046 63.1093 
221.502 258.046 63.0457 222.502 258.046 63.0032 223.502 258.046 63.0945 
224.502 258.046 63.2147 225.502 258.046 63.4832 226.502 258.046 63.7394 
227.502 258.046 63.9701 217.502 259.046 63.9221 218.502 259.046 63.7059 
219.502 259.046 63.4852 220.502 259.046 63.2908 221.502 259.046 63.2252 
222.502 259.046 63.2031 223.502 259.046 63.3228 224.502 259.046 63.4799 
225.502 259.046 63.7444 226.502 259.046 63.9988 217.502 260.046 63.9375 
218.502 260.046 63.7595 219.502 260.046 63.5784 220.502 260.046 63.4239 
221.502 260.046 63.4137 222.502 260.046 63.4037 223.502 260.046 63.5515 
224.502 260.046 63.7445 218.502 261.046 63.8438 219.502 261.046 63.6971 
220.502 261.046 63.6022 221.502 261.046 63.6022 222.502 261.046 63.6028 
223.502 261.046 63.7597 224.502 261.046 63.9783 218.502 262.046 63.9545 
219.502 262.046 63.862 220.502 262.046 63.7805 221.502 262.046 63.7906 
222.502 262.046 63.8027 223.502 262.046 63.9624 220.502 263.046 63.9588 
221.502 263.046 63.9791 250.502 319.046 63.9953 251.502 319.046 63.8005 
252.502 319.046 63.6173 253.502 319.046 63.5867 254.502 319.895 63 
254.502 319.046 63.5431 255.502 319.046 63.9381 249.502 320.046 63.9103 
250.502 320.046 63.7078 251.502 320.046 63.4926 252.502 320.473 63 
252.502 320.046 63.1712 253.935 320.046 63 253.502 320.162 63 
253.502 320.046 63.0609 255.313 320.046 63 255.502 320.081 63 
255.502 320.046 63.0319 256.502 320.279 63 256.502 320.046 63.3977 
248.502 321.046 63.9899 249.502 321.046 63.7059 250.502 321.046 63.4218 
251.987 321.046 63 251.502 321.646 63 251.502 321.046 63.1548 
257.231 321.046 63 257.502 321.369 63 257.502 321.046 63.2346 
258.502 321.046 63.7303 248.502 322.046 63.9206 249.502 322.046 63.5766 
251.178 322.046 63 250.502 322.046 63.2326 258.069 322.046 63 
258.502 322.753 63 258.502 322.046 63.2277 259.502 322.046 63.613 
260.502 322.046 63.8944 248.502 323.046 63.8761 249.502 323.046 63.4885 
250.762 323.046 63 250.502 323.046 63.1009 258.681 323.046 63 
259.502 323.046 63.3061 260.502 323.046 63.6791 248.502 324.046 63.8718 
249.502 324.046 63.4707 250.675 324.046 63 250.502 324.046 63.0697 
259.097 324.046 63 259.502 324.046 63.1549 260.502 324.046 63.5379 
261.502 324.046 63.921 248.502 325.046 63.914 249.502 325.046 63.5377 
250.931 325.046 63 250.502 325.046 63.1615 259.395 325.046 63 
259.502 325.576 63 259.502 325.046 63.0428 260.502 325.046 63.4444 
261.502 325.046 63.846 248.502 326.046 63.9792 249.502 326.046 63.649 
251.467 326.046 63 250.502 326.046 63.3187 251.502 326.135 63 
259.596 326.046 63 260.502 326.046 63.3891 261.502 326.046 63.8188 
249.502 327.046 63.78 250.502 327.046 63.4495 251.862 327.046 63 
251.502 327.046 63.119 259.648 327.046 63 260.502 327.046 63.3722 
261.502 327.046 63.8085 249.502 328.046 63.9698 250.502 328.046 63.6021 
252.139 328.046 63 251.502 328.046 63.2344 252.502 328.684 63 
259.577 328.046 63 259.502 328.234 63 260.502 328.046 63.3913 
261.502 328.046 63.8143 250.502 329.046 63.853 251.502 329.046 63.4663 
252.707 329.046 63 252.502 329.046 63.0847 253.502 329.931 63 
259.177 329.046 63 258.502 330.044 63 259.502 329.046 63.1202 
260.502 329.046 63.4904 261.502 329.046 63.8606 251.502 330.046 63.8177 
252.502 330.046 63.4743 253.614 330.046 63 253.502 330.046 63.0524 
254.502 330.863 63 255.502 330.983 63 258.499 330.046 63 
257.502 330.644 63 258.502 330.046 63.0006 259.502 330.046 63.307 
260.502 330.046 63.6135 261.502 330.046 63.92 252.502 331.046 63.9041 
253.502 331.046 63.5597 254.502 331.046 63.1083 256.03 331.046 63 
255.502 331.046 63.0348 256.625 331.046 63 256.502 331.103 63 
257.502 331.046 63.1678 258.502 331.046 63.3356 259.502 331.046 63.5548 
260.502 331.046 63.787 254.502 332.046 63.7009 255.502 332.046 63.5852 
256.502 332.046 63.4849 257.502 332.046 63.5853 258.502 332.046 63.6707 
259.502 332.046 63.832 260.502 332.046 63.9784 256.502 333.046 63.9988 
226.502 249.893 64 224.502 250.515 64 226.008 250.046 64 
225.502 250.203 64 227.183 250.046 64 226.502 250.046 64.0837 
227.502 250.118 64 228.502 250.372 64 223.855 251.046 64 
223.502 251.337 64 224.502 251.046 64.3528 225.502 251.046 64.505 
226.502 251.046 64.6298 227.502 251.046 64.4604 229.123 251.046 64 
228.502 251.046 64.2878 229.502 251.507 64 222.64 252.046 64 
222.502 252.16 64 223.502 252.046 64.4854 227.502 252.046 64.9564 
228.502 252.046 64.7289 229.946 252.046 64 229.502 252.046 64.2241 
220.502 253.955 64 221.505 253.046 64 221.502 253.049 64 
222.502 253.046 64.6004 230.364 253.046 64 229.502 253.046 64.5525 
[...]
POINT_DATA 1264
SCALARS ImageScalars float
LOOKUP_TABLE default
0 0 0 0 0 0 0 0 0 
0 0 0 0 0 0 0 0 0 
0 0 0 0 0 0 0 0 0 
0 0 0 0 0 0 0 0 0 
0 0 0 0 0 0 0 0 0 
0 0 0 0 0 0 0 0 0 
0 0 0 0 0 0 0 0 0 
0 0 0 0 0 0 0 0 0 
0 0 0 0 0 0 0 0 0 
0 0 0 0 0 0 0 0 0 
0 0 0 0 0 0 0 0 0 
0 0 0 0 0 0 0 0 0 
0 0 0 0 0 0 0 0 0 
0 0 0 0 0 0 0 0 0 
0 0 0 0 0 0 0 0 0 
0 0 0 0 0 0 0 0 0 
0 0 0 0 0 0 0 0 0 
0 0 0 0 0 0 0 0 0 
0 0 0 0 0 0 0 0 0 
0 0 0 0 0 0 0 0 0 
0 0 0 0 0 0 0 0 0 
0 0 0 0 0 0 0 0 0 
0 0 0 0 0 0 0 0 0 
0 0 0 0 0 0 0 0 0 
0 0 0 0 0 0 0 0 0 
0 0 0 0 0 0 0 0 0 
0 0 0 0 0 0 0 0 0 
0 0 0 0 0 0 0 0 0 
0 0 0 0 0 0 0 0 0 
0 0 0 0 0 0 0 0 0 
0 0 0 0 0 0 0 0 0 
0 0 0 0 0 0 0 0 0 
0 0 0 0 0 0 0 0 0 
0 0 0 0 0 0 0 0 0 
0 0 0 0 0 0 0 0 0 
0 0 0 0 0 0 0 0 0 
0 0 0 0 0 0 0 0 0 
0 0 0 0 0 0 0 0 0 
0 0 0 0 0 0 0 0 0 
0 0 0 0 0 0 0 0 0 
0 0 0 0 0 0 0 0 0 
0 0 0 0 0 0 0 0 0 
0 0 0 0 0 0 0 0 0 
0 0 0 0 0 0 0 0 0 
0 0 0 0 0 0 0 0 0 
0 0 0 0 0 0 0 0 0 
0 0 0 0 0 0 0 0 0 
0 0 0 0 0 0 0 0 0 
0 0 0 0 0 0 0 0 0 
0 0 0 0 0 0 0 0 0 
0 0 0 0 0 0 0 0 0 
0 0 0 0 0 0 0 0 0 
0 0 0 0 0 0 0 0 0 
0 0 0 0 0 0 0 0 0 
0 0 0 0 0 0 0 0 0 
0 0 0 0 0 0 0 0 0 
0 0 0 0 0 0 0 0 0 
0 0 0 0 0 0 0 0 0 
0 0 0 0 0 0 0 0 0 
0 0 0 0 0 0 0 0 0 
0 0 0 0 0 0 0 0 0 
0 0 0 0 0 0 0 0 0 
0 0 0 0 0 0 0 0 0 
0 0 0 0 0 0 0 0 0 
0 0 0 0 0 0 0 0 0 
0 0 0 0 0 0 0 0 0 
0 0 0 0 0 0 0 0 0 
0 0 0 0 0 0 0 0 0 
0 0 0 0 0 0 0 0 0 
0 0 0 0 0 0 0 0 0 
0 0 0 0 0 0 0 0 0 
0 0 0 0 0 0 0 0 0 
0 0 0 0 0 0 0 0 0 
0 0 0 0 0 0 0 0 0 
0 0 0 0 0 0 0 0 0 
0 0 0 0 0 0 0 0 0 
0 0 0 0 0 0 0 0 0 
0 0 0 0 0 0 0 0 0 
0 0 0 0 0 0 0 0 0 
0 0 0 0 0 0 0 0 0 
0 0 0 0 0 0 0 0 0 
0 0 0 0 0 0 0 0 0 
0 0 0 0 0 0 0 0 0 
0 0 0 0 0 0 0 0 0 
0 0 0 0 0 0 0 0 0 
0 0 0 0 0 0 0 0 0 
0 0 0 0 0 0 0 0 0 
0 0 0 0 0 0 0 0 0 
0 0 0 0 0 0 0 0 0 
0 0 0 0 0 0 0 0 0 
0 0 0 0 0 0 0 0 0 
0 0 0 0 0 0 0 0 0 
0 0 0 0 0 0 0 0 0 
0 0 0 0 0 0 0 0 0 
0 0 0 0 0 0 0 0 0 
0 0 0 0 0 0 0 0 0 
0 0 0 0 0 0 0 0 0 
0 0 0 0 0 0 0 0 0 
0 0 0 0 0 0 0 0 0 
0 0 0 0 0 0 0 0 0 
0 0 0 0 0 0 0 0 0 
0 0 0 0 0 0 0 0 0 
0 0 0 0 0 0 0 0 0 
0 0 0 0 0 0 0 0 0 
0 0 0 0 0 0 0 0 0 
0 0 0 0 0 0 0 0 0 
0 0 0 0 0 0 0 0 0 
0 0 0 0 0 0 0 0 0 
0 0 0 0 0 0 0 0 0 
0 0 0 0 0 0 0 0 0 
0 0 0 0 0 0 0 0 0 
0 0 0 0 0 0 0 0 0 
0 0 0 0 0 0 0 0 0 
0 0 0 0 0 0 0 0 0 
0 0 0 0 0 0 0 0 0 
0 0 0 0 0 0 0 0 0 
0 0 0 0 0 0 0 0 0 
0 0 0 0 0 0 0 0 0 
0 0 0 0 0 0 0 0 0 
0 0 0 0 0 0 0 0 0 
0 0 0 0 0 0 0 0 0 
0 0 0 0 0 0 0 0 0 
0 0 0 0 0 0 0 0 0 
0 0 0 0 0 0 0 0 0 
0 0 0 0 0 0 0 0 0 
0 0 0 0 0 0 0 0 0 
0 0 0 0 0 0 0 0 0 
0 0 0 0 0 0 0 0 0 
0 0 0 0 0 0 0 0 0 
0 0 0 0 0 0 0 0 0 
0 0 0 0 0 0 0 0 0 
0 0 0 0 0 0 0 0 0 
0 0 0 0 0 0 0 0 0 
0 0 0 0 0 0 0 0 0 
0 0 0 0 0 0 0 0 0 
0 0 0 0 0 0 0 0 0 
0 0 0 0 0 0 0 0 0 
0 0 0 0 0 0 0 0 0 
0 0 0 0 0 0 0 0 0 
0 0 0 0 0 0 0 0 0 
0 0 0 0 
NORMALS Normals float
-9.2796e-012 -2.002e-011 -1 -3.77165e-012 -2.002e-011 -1 1.72428e-012 -2.002e-011 -1 
9.17488e-012 -2.002e-011 -1 -1.47833e-011 -1.82247e-011 -1 -9.40706e-012 -2.002e-011 -1 
-3.77165e-012 -2.002e-011 -1 1.72428e-012 -2.002e-011 -1 9.17488e-012 -1.89267e-011 -1 
1.66627e-011 -1.72294e-011 -1 -2.002e-011 -1.55173e-011 -1 -1.64511e-011 -1.55173e-011 -1 
-1.10749e-011 -2.002e-011 -1 -3.77165e-012 -2.002e-011 -1 2.81761e-012 -2.002e-011 -1 
1.19655e-011 -1.14192e-011 -1 2.002e-011 -9.72194e-012 -1 2.002e-011 -8.06188e-012 -1 
-2.002e-011 -1.4107e-011 -1 -2.002e-011 -1.4107e-011 -1 -1.9286e-011 -1.4107e-011 -1 
-1.39098e-011 -1.76759e-011 -1 -3.77165e-012 -1.88096e-011 -1 1.03251e-011 -9.6617e-012 -1 
1.9473e-011 -1.60716e-012 -1 2.002e-011 -1.60716e-012 -1 2.002e-011 -1.60716e-012 -1 
-2.002e-011 -1.3685e-011 -1 -2.002e-011 -1.3685e-011 -1 -2.002e-011 -1.3685e-011 -1 
-1.57775e-011 -1.4419e-011 -1 4.24254e-012 -5.12119e-012 -1 2.002e-011 4.02668e-012 -1 
2.002e-011 4.57375e-012 -1 2.002e-011 4.57375e-012 -1 2.002e-011 4.57375e-012 -1 
-2.002e-011 -1.09323e-011 -1 -2.002e-011 -1.09323e-011 -1 -2.002e-011 -1.09323e-011 -1 
-2.002e-011 -1.09323e-011 -1 -5.34597e-012 -5.3982e-012 -1 1.46741e-011 1.03793e-011 -1 
2.002e-011 1.03793e-011 -1 2.002e-011 1.03793e-011 -1 2.002e-011 1.03793e-011 -1 
2.002e-011 1.03793e-011 -1 -2.002e-011 -6.09407e-012 -1 -2.002e-011 -6.09408e-012 -1 
-2.002e-011 -6.09408e-012 -1 -1.4486e-011 -5.07058e-012 -1 5.53406e-012 9.83227e-012 -1 
2.002e-011 1.51782e-011 -1 2.002e-011 1.51782e-011 -1 2.002e-011 1.51782e-011 -1 
2.002e-011 1.51782e-011 -1 -2.002e-011 -9.93063e-013 -1 -2.002e-011 -9.93064e-013 -1 
-2.002e-011 -9.93063e-013 -1 -1.89965e-011 9.00912e-013 -1 -4.09367e-012 9.11856e-012 -1 
1.49029e-011 1.77613e-011 -1 2.002e-011 1.63509e-011 -1 2.002e-011 1.63509e-011 -1 
2.002e-011 1.63509e-011 -1 -2.002e-011 5.14687e-012 -1 -1.8126e-011 5.14687e-012 -1 
-9.9084e-012 1.28259e-011 -1 2.37439e-012 2.002e-011 -1 1.27664e-011 1.92939e-011 -1 
1.86097e-011 1.49064e-011 -1 2.002e-011 1.49064e-011 -1 -2.002e-011 1.22009e-011 -1 
-1.2341e-011 1.37328e-011 -1 -4.12337e-012 2.002e-011 -1 2.37439e-012 2.002e-011 -1 
9.78922e-012 2.002e-011 -1 1.56325e-011 1.56208e-011 -1 2.002e-011 1.56208e-011 -1 
-1.03069e-011 1.95178e-011 -1 -3.62114e-012 2.002e-011 -1 2.37439e-012 2.002e-011 -1 
8.36719e-012 2.002e-011 -1 1.42105e-011 1.85774e-011 -1 -8.08386e-013 -2.002e-011 -1 
-1.37034e-011 -1.70929e-011 -1 -6.36967e-012 -2.002e-011 -1 -8.08386e-013 -2.002e-011 -1 
4.22229e-012 -2.002e-011 -1 1.23644e-011 -1.7905e-011 -1 -2.002e-011 -1.22582e-011 -1 
-1.56192e-011 -1.22582e-011 -1 -8.2855e-012 -1.85748e-011 -1 -8.08386e-013 -2.002e-011 -1 
5.85083e-012 -2.002e-011 -1 1.3993e-011 -1.45116e-011 -1 2.002e-011 -1.45116e-011 -1 
-2.002e-011 -5.03032e-012 -1 -2.002e-011 -5.03032e-012 -1 -1.41315e-011 -9.4311e-012 -1 
-2.25358e-012 -1.67648e-011 -1 9.73073e-012 -1.63238e-011 -1 1.78729e-011 -1.02967e-011 -1 
2.002e-011 -1.02967e-011 -1 2.002e-011 -1.02967e-011 -1 -2.002e-011 1.69063e-012 -1 
-2.002e-011 1.69063e-012 -1 -2.002e-011 1.69063e-012 -1 -7.70107e-012 -4.19792e-012 -1 
1.2319e-011 -9.2964e-012 -1 2.002e-011 -7.14924e-012 -1 2.002e-011 -7.14924e-012 -1 
2.002e-011 -7.14924e-012 -1 -2.002e-011 7.92115e-012 -1 -2.002e-011 7.92115e-012 -1 
-2.002e-011 7.92115e-012 -1 -1.32406e-011 7.92115e-012 -1 6.77941e-012 -4.3978e-012 -1 
2.002e-011 -4.9943e-012 -1 2.002e-011 -4.9943e-012 -1 2.002e-011 -4.9943e-012 -1 
-2.002e-011 9.31751e-012 -1 -2.002e-011 9.31751e-012 -1 -2.002e-011 9.31751e-012 -1 
-2.002e-011 9.31751e-012 -1 -5.96498e-013 2.5381e-012 -1 1.94235e-011 -2.53392e-012 -1 
2.002e-011 -2.53392e-012 -1 2.002e-011 -2.53392e-012 -1 2.002e-011 -2.53392e-012 -1 
-2.002e-011 6.73116e-012 -1 -2.002e-011 6.73116e-012 -1 -2.002e-011 6.73116e-012 -1 
-5.07201e-012 1.09925e-011 -1 1.4948e-011 3.8158e-013 -1 2.002e-011 1.96212e-013 -1 
2.002e-011 1.96212e-013 -1 2.002e-011 1.96212e-013 -1 -2.002e-011 8.4648e-012 -1 
-2.002e-011 8.4648e-012 -1 -1.57586e-011 8.4648e-012 -1 -6.94607e-012 1.70493e-011 -1 
8.6272e-012 1.09138e-011 -1 1.98347e-011 5.49197e-012 -1 2.002e-011 4.7185e-012 -1 
2.002e-011 4.7185e-012 -1 -2.002e-011 1.46733e-011 -1 -1.14355e-011 1.54688e-011 -1 
-2.62297e-012 2.002e-011 -1 3.3907e-012 2.002e-011 -1 1.38247e-011 1.47835e-011 -1 
1.92465e-011 1.07771e-011 -1 -1.04119e-011 1.97919e-011 -1 -2.39488e-012 2.002e-011 -1 
3.3907e-012 2.002e-011 -1 1.05917e-011 2.002e-011 -1 3.3907e-012 2.002e-011 -1 
-9.2796e-012 -2.002e-011 -1 -3.77165e-012 -2.002e-011 -1 1.72428e-012 -2.002e-011 -1 
9.17488e-012 -2.002e-011 -1 -9.72724e-012 -2.00099e-011 -1 -1.48554e-011 -1.91708e-011 -1 
-9.42119e-012 -2.01922e-011 -1 -5.40658e-012 -2.29047e-011 -1 9.08502e-013 -2.26433e-011 -1 
1.21283e-011 -2.002e-011 -1 9.07663e-012 -2.23236e-011 -1 1.66627e-011 -1.86167e-011 -1 
-1.77161e-011 -1.83673e-011 -1 -2.002e-011 -1.69156e-011 -1 -1.71167e-011 -2.09504e-011 -1 
-1.45954e-011 -2.63285e-011 -1 -1.0665e-011 -3.21828e-011 -1 -2.35585e-012 -3.31404e-011 -1 
8.56106e-012 -3.33182e-011 -1 1.76742e-011 -1.62401e-011 -1 1.77522e-011 -2.20331e-011 -1 
1.93674e-011 -1.10132e-011 -1 -2.002e-011 -1.55173e-011 -1 -2.002e-011 -1.43239e-011 -1 
-2.17792e-011 -1.7485e-011 -1 -2.41214e-011 -2.44769e-011 -1 -2.57163e-011 -3.78226e-011 -1 
-2.30839e-011 -5.4095e-011 -1 -1.01692e-011 -6.17814e-011 -1 9.72849e-012 -6.38676e-011 -1 
2.51817e-011 -3.24791e-011 -1 2.002e-011 -8.06188e-012 -1 2.20849e-011 -1.14232e-011 -1 
-2.002e-011 -1.4107e-011 -1 -2.06062e-011 -1.46726e-011 -1 -2.66375e-011 -2.1509e-011 -1 
-3.63979e-011 -3.40952e-011 -1 -5.26535e-011 -6.47844e-011 -1 -8.84948e-011 -1.68297e-010 -1 
-1.24959e-010 -4.44693e-010 -1 1.12889e-010 -4.11057e-010 -1 2.002e-011 -1.60716e-012 -1 
3.91943e-011 -3.15942e-011 -1 -2.002e-011 -1.3685e-011 -1 -2.002e-011 -1.288e-011 -1 
-2.57599e-011 -1.92235e-011 -1 -3.61301e-011 -3.1705e-011 -1 -6.31566e-011 -6.40725e-011 -1 
-2.31229e-010 -2.76387e-010 -1 2.002e-011 4.57375e-012 -1 -2.002e-011 -1.09323e-011 -1 
-2.34947e-011 -1.41521e-011 -1 -3.61391e-011 -2.64858e-011 -1 -6.42362e-011 -6.03904e-011 -1 
-5.44757e-010 -6.23874e-010 -1 2.002e-011 1.03793e-011 -1 2.002e-011 1.04611e-011 -1 
6.45963e-011 -1.72829e-011 -1 -2.002e-011 -6.09407e-012 -1 -2.002e-011 -3.29033e-012 -1 
-2.94175e-011 -1.57777e-011 -1 -6.21016e-011 -4.7992e-011 -1 -1.85082e-008 -2.06861e-008 -1 
2.002e-011 1.51782e-011 -1 2.002e-011 1.56518e-011 -1 2.70942e-011 1.34115e-011 -1 
5.85207e-011 5.56279e-012 -1 -2.002e-011 -9.93063e-013 -1 -2.002e-011 4.75073e-012 -1 
-2.09231e-011 -1.87037e-012 -1 -4.3915e-011 -2.42071e-011 -1 2.002e-011 1.63509e-011 -1 
2.002e-011 1.54416e-011 -1 2.3454e-011 1.66439e-011 -1 3.5522e-011 1.76734e-011 -1 
7.31718e-011 2.08852e-011 -1 -2.002e-011 5.14687e-012 -1 -3.51104e-010 -2.67308e-010 -1 
2.002e-011 1.49064e-011 -1 2.16007e-011 1.56485e-011 -1 2.96261e-011 1.88673e-011 -1 
4.71405e-011 2.55595e-011 -1 1.15309e-010 5.23365e-011 -1 -2.002e-011 1.2433e-011 -1 
-1.92117e-011 1.63537e-011 -1 2.002e-011 1.56208e-011 -1 2.002e-011 1.56413e-011 -1 
2.61796e-011 2.12082e-011 -1 3.74157e-011 3.04366e-011 -1 7.0777e-011 5.20812e-011 -1 
5.26511e-010 3.64935e-010 -1 -7.72197e-011 -1.97113e-011 -1 -1.66147e-011 1.83925e-011 -1 
-2.20064e-011 1.58978e-011 -1 -1.03069e-011 1.98303e-011 -1 -3.62114e-012 2.002e-011 -1 
2.37439e-012 2.002e-011 -1 8.35548e-012 2.002e-011 -1 1.50704e-011 1.85774e-011 -1 
1.42074e-011 1.87883e-011 -1 2.60467e-011 2.43036e-011 -1 3.72209e-011 3.70746e-011 -1 
6.39475e-011 6.96106e-011 -1 2.66242e-010 2.7411e-010 -1 -8.62317e-010 -3.6512e-010 -1 
-6.25119e-011 7.7622e-013 -1 -3.06964e-011 1.46234e-011 -1 -1.27648e-011 1.88961e-011 -1 
-4.5359e-012 1.97015e-011 -1 2.3723e-012 2.00348e-011 -1 1.03084e-011 2.22998e-011 -1 
2.01096e-011 2.57579e-011 -1 3.97193e-011 3.87169e-011 -1 7.28422e-011 7.68024e-011 -1 
5.78408e-010 6.68714e-010 -1 -2.56867e-010 -1.23462e-011 -1 -6.84748e-011 1.34539e-011 -1 
-3.77629e-011 1.74415e-011 -1 -1.74905e-011 1.93903e-011 -1 -5.44449e-012 2.28335e-011 -1 
5.19612e-012 2.5145e-011 -1 1.78058e-011 3.03466e-011 -1 3.29047e-011 3.97065e-011 -1 
7.83284e-011 7.83201e-011 -1 1.61569e-008 1.7373e-008 -1 -3.20408e-010 7.79259e-011 -1 
-8.36364e-011 3.22052e-011 -1 -4.47099e-011 2.72208e-011 -1 -1.59051e-011 2.83407e-011 -1 
-1.83433e-012 3.4147e-011 -1 1.00506e-011 3.35731e-011 -1 3.29642e-011 4.36424e-011 -1 
7.25071e-011 7.59956e-011 -1 -1.21034e-010 7.69024e-011 -1 -4.7824e-011 5.49098e-011 -1 
-1.44706e-011 5.03307e-011 -1 7.55545e-014 5.03239e-011 -1 1.79521e-011 5.0271e-011 -1 
6.85275e-011 7.71377e-011 -1 9.14809e-010 8.32697e-010 -1 -3.43267e-010 3.42888e-010 -1 
-7.72157e-011 1.45123e-010 -1 -2.00867e-011 9.12151e-011 -1 5.60185e-012 9.56262e-011 -1 
4.05553e-011 1.01475e-010 -1 4.72476e-010 5.05945e-010 -1 -7.43169e-011 4.86003e-010 -1 
1.10837e-010 9.58299e-010 -1 -3.39832e-009 -5.05463e-009 -1 -8.83246e-010 -1.00348e-010 -1 
-1.70851e-011 -5.23106e-011 -1 -3.31128e-012 -4.84357e-011 -1 -8.08386e-013 -2.002e-011 -1 
7.7329e-012 -4.38161e-011 -1 2.12712e-010 -3.23296e-010 -1 -2.20178e-010 -1.00683e-009 -1 
-5.77269e-011 -9.03769e-010 -1 -3.48048e-011 -4.06026e-011 -1 -1.43617e-011 -1.81907e-011 -1 
-1.51382e-011 -2.31448e-011 -1 -3.38577e-012 -2.002e-011 -1 -5.47559e-012 -2.002e-011 -1 
-5.26478e-012 -2.13192e-011 -1 2.87971e-012 -2.002e-011 -1 3.75287e-012 -2.002e-011 -1 
4.18969e-012 -2.06788e-011 -1 1.19913e-011 -1.91539e-011 -1 1.97207e-011 -3.27555e-011 -1 
-1.98988e-009 -8.00577e-010 -1 -6.80658e-011 -4.66596e-011 -1 -3.17953e-011 -3.35342e-011 -1 
-1.69572e-011 -1.82056e-011 -1 -2.002e-011 -1.50586e-011 -1 -2.15278e-011 -2.21543e-011 -1 
1.79503e-011 -1.7905e-011 -1 2.002e-011 -1.68093e-011 -1 2.2679e-011 -2.40416e-011 -1 
4.65101e-011 -7.21101e-011 -1 -2.52279e-010 -4.5281e-011 -1 -4.72886e-011 -1.61353e-011 -1 
-2.002e-011 -1.22582e-011 -1 -2.60895e-011 -1.31212e-011 -1 2.002e-011 -1.45116e-011 -1 
2.002e-011 -1.15311e-011 -1 2.29038e-011 -2.04126e-011 -1 3.87635e-011 -4.55227e-011 -1 
1.57178e-010 -1.43425e-010 -1 -1.61527e-010 -1.13339e-011 -1 -3.91376e-011 -5.88193e-012 -1 
-2.002e-011 -5.03032e-012 -1 -2.22663e-011 -5.13038e-012 -1 2.002e-011 -1.02967e-011 -1 
2.71253e-011 -1.60452e-011 -1 6.23929e-011 -2.97701e-011 -1 -1.56109e-010 7.89022e-012 -1 
-3.78248e-011 2.50173e-012 -1 -2.002e-011 1.69063e-012 -1 -2.15195e-011 1.75894e-012 -1 
2.002e-011 -7.14924e-012 -1 2.36896e-011 -8.10906e-012 -1 4.3327e-011 -1.32456e-011 -1 
2.53302e-010 -6.8168e-011 -1 -2.32696e-010 3.52437e-011 -1 -4.33072e-011 1.09129e-011 -1 
-2.002e-011 7.92115e-012 -1 -2.38753e-011 8.41645e-012 -1 2.002e-011 -4.9943e-012 -1 
2.002e-011 -3.69114e-012 -1 2.09141e-011 -5.09054e-012 -1 3.60327e-011 -6.71793e-012 -1 
1.30029e-010 -1.68359e-011 -1 -9.64681e-010 2.75205e-010 -1 -5.70348e-011 1.97358e-011 -1 
-2.002e-011 9.31751e-012 -1 -2.93861e-011 1.19537e-011 -1 -2.002e-011 9.08874e-012 -1 
2.002e-011 -2.53392e-012 -1 3.27714e-011 -2.88895e-012 -1 1.10497e-010 -5.05307e-012 -1 
-9.09895e-011 4.15356e-011 -1 -3.63654e-011 1.47472e-011 -1 -2.002e-011 6.73116e-012 -1 
-2.27237e-011 8.05705e-012 -1 2.002e-011 1.96212e-013 -1 3.18914e-011 9.29355e-014 -1 
1.04533e-010 -5.39019e-013 -1 -6.63876e-010 4.22341e-010 -1 -5.03182e-011 2.79408e-011 -1 
-2.002e-011 8.4648e-012 -1 -2.61501e-011 1.24053e-011 -1 -2.002e-011 1.24261e-011 -1 
2.002e-011 4.7185e-012 -1 2.002e-011 5.85441e-012 -1 3.28899e-011 5.12065e-012 -1 
1.07806e-010 7.46157e-012 -1 -1.36185e-010 1.08061e-010 -1 -3.61354e-011 2.87792e-011 -1 
-2.002e-011 1.46733e-011 -1 -2.13977e-011 1.63946e-011 -1 -1.93161e-011 1.84986e-011 -1 
1.97689e-011 1.07771e-011 -1 1.60217e-011 1.67719e-011 -1 2.27552e-011 1.10203e-011 -1 
3.9286e-011 1.24905e-011 -1 1.43623e-010 2.177e-011 -1 -9.85531e-011 1.0482e-010 -1 
-3.26552e-011 3.70574e-011 -1 -1.82349e-011 1.90857e-011 -1 -1.99345e-011 2.01042e-011 -1 
-1.04119e-011 1.99783e-011 -1 -2.39488e-012 2.002e-011 -1 1.59981e-011 1.67963e-011 -1 
1.05917e-011 2.002e-011 -1 1.60178e-011 1.6795e-011 -1 2.76544e-011 2.02038e-011 -1 
5.1796e-011 2.57472e-011 -1 2.50134e-010 8.16746e-011 -1 -1.52095e-010 2.08812e-010 -1 
-3.55334e-011 4.54675e-011 -1 -1.1489e-011 2.24526e-011 -1 6.62793e-013 2.002e-011 -1 
-2.57445e-012 2.07418e-011 -1 4.27682e-012 2.002e-011 -1 3.3907e-012 2.002e-011 -1 
1.06314e-011 2.40567e-011 -1 1.7973e-011 3.01344e-011 -1 3.46193e-011 4.06695e-011 -1 
8.63385e-011 6.33846e-011 -1 -3.11826e-011 6.6929e-011 -1 -9.42208e-012 4.82647e-011 -1 
1.13053e-012 3.88654e-011 -1 1.08696e-011 4.82713e-011 -1 2.39133e-011 6.07981e-011 -1 
6.43598e-011 1.1918e-010 -1 7.07426e-010 7.86026e-010 -1 -1.92975e-009 1.61386e-008 -1 
-0.0181192 -0.424822 0.905096 -0.192606 -0.339839 0.92055 -0.0685893 -0.391608 0.917572 
-0.113241 -0.364147 0.924431 0.0662107 -0.470093 0.88013 -6.72735e-012 -2.39211e-010 1 
0.113728 -0.495253 0.861273 0.361014 -0.53645 0.762817 -0.243293 -0.332354 0.911235 
-0.272189 -0.330955 0.903538 -3.00788e-011 -5.67387e-011 1 -9.07118e-012 -3.96413e-011 1 
2.11955e-012 -3.17863e-011 1 1.48448e-011 -4.34864e-011 1 0.55694 -0.559164 0.614128 
4.68873e-011 -6.32341e-011 1 0.709677 -0.536738 0.456367 -0.297314 -0.349186 0.888636 
-0.302941 -0.353863 0.884877 -3.36268e-011 -4.12431e-011 1 8.92423e-012 -2.09035e-011 1 
2.00288e-011 -2.30256e-011 1 0.827529 -0.513531 0.226898 8.93231e-011 -6.14125e-011 1 
-0.427962 -0.414436 0.803176 -0.348215 -0.389548 0.852642 -0.348415 -0.389683 0.852499 
-2.87298e-011 -3.33464e-011 1 0.879541 -0.219663 -0.422086 3.62333e-011 -1.8969e-011 1 
-0.434313 -0.419591 0.797067 -3.23456e-010 -3.1413e-010 1 -2.71738e-011 -2.94274e-011 1 
0.630162 0.0537583 -0.7746 2.10061e-011 -9.4542e-012 1 -0.570355 -0.469354 0.674093 
-0.583551 -0.477135 0.657123 -2.81297e-011 -2.76566e-011 1 0.482353 0.189471 -0.855241 
-0.755266 -0.568771 0.325688 -0.809034 -0.584534 0.0615126 -2.82411e-011 -2.75088e-011 1 
0.408292 0.281588 -0.868335 0.398468 0.292958 -0.869137 -0.768289 -0.515445 -0.379536 
-0.579832 -0.280351 -0.764982 -3.11377e-011 -2.66589e-011 1 0.34026 0.342456 -0.875755 
0.32595 0.344659 -0.880322 -0.552866 -0.252798 -0.793998 -1.21409e-010 -6.05534e-011 1 
0.299449 0.345461 -0.889374 0.297129 0.345193 -0.890256 2.75604e-011 2.28572e-011 1 
-0.414016 -0.0565772 -0.90851 0.342602 0.328916 -0.880022 0.319916 0.344154 -0.882729 
0.320054 0.344112 -0.882696 2.54449e-011 2.77878e-011 1 -0.333089 0.0642098 -0.940707 
-0.289068 0.145677 -0.94616 0.342674 0.32869 -0.880078 1.14904e-009 1.10386e-009 1 
2.36986e-011 2.54115e-011 1 -0.285835 0.150647 -0.946364 -2.96191e-010 1.48508e-010 1 
0.350132 0.315951 -0.881806 0.350134 0.317491 -0.881252 2.39049e-011 2.43901e-011 1 
-0.218145 0.205571 -0.95402 -2.1807e-011 1.06051e-011 1 -0.197345 0.211769 -0.957188 
-0.109741 0.268853 -0.956909 0.145646 0.315148 -0.9378 0.305623 0.314376 -0.898756 
0.296501 0.313352 -0.902163 2.30513e-011 2.42484e-011 1 -2.65022e-011 3.03249e-011 1 
-0.0797978 0.275973 -0.957847 -5.21214e-011 1.29187e-010 1 -0.0393026 0.286116 -0.957389 
0.13387 0.313843 -0.93999 0.0367686 0.301413 -0.952784 6.79911e-010 1.46877e-009 1 
1.92841e-011 2.19527e-011 1 -3.4602e-012 2.82071e-011 1 4.14311e-012 2.28786e-011 1 
-0.208348 -0.344094 -0.915528 -0.00553829 -0.0251069 0.999669 -0.0016979 -0.0245539 0.999697 
0.00173876 -0.0241358 0.999707 0.00851782 -0.0237307 0.999682 0.0159523 -0.0231506 0.999605 
-0.261942 -0.33953 -0.903386 -0.0474398 -0.0425046 0.997969 -2.38019e-009 -3.94401e-009 1 
-5.49317e-010 -2.56097e-009 1 -1.16369e-010 -1.95236e-009 1 1.76918e-010 -2.15788e-009 1 
8.90992e-010 -2.40651e-009 1 0.0157066 -0.0230939 0.99961 1.76903e-008 -2.56238e-008 1 
0.0133798 -0.0225566 0.999656 -0.0256263 -0.0207569 0.999456 -0.0253429 -0.0105758 0.999623 
-3.70663e-009 -3.00245e-009 1 -6.94645e-010 -9.35198e-010 1 -2.06506e-010 -1.0069e-009 1 
-4.37072e-011 -9.01562e-010 1 8.98868e-011 -9.49802e-010 1 3.87003e-010 -1.0024e-009 1 
1.16316e-009 -1.63896e-009 1 0.0106311 -0.0223878 0.999693 3.18637e-009 -5.31805e-009 1 
0.00967556 -0.0223305 0.999704 0.0108155 -0.0221312 0.999697 -0.0253158 -0.00993409 0.99963 
-4.66299e-008 -1.82857e-008 1 -1.59502e-009 -6.20972e-010 1 -6.50298e-010 -3.18314e-010 1 
-2.45938e-010 -4.91736e-010 1 -2.18936e-011 -5.86108e-010 1 6.53285e-011 -6.08908e-010 1 
2.54428e-010 -6.33041e-010 1 6.17146e-010 -8.46554e-010 1 8.24829e-010 -1.33679e-009 1 
9.20195e-010 -2.05752e-009 1 0.0120886 -0.021909 0.999687 1.94946e-009 -3.92809e-009 1 
0.0124009 -0.0218206 0.999685 0.0172998 -0.0178213 0.999691 -0.0248706 -0.00353611 0.999684 
-7.22897e-009 -1.01064e-009 1 -1.35504e-009 -1.75486e-010 1 -7.47583e-010 -8.91182e-011 1 
-4.1626e-010 -1.6011e-010 1 -1.06141e-010 -3.11959e-010 1 5.37427e-011 -4.48085e-010 1 
1.93246e-010 -4.62589e-010 1 4.27032e-010 -5.70653e-010 1 4.85355e-010 -7.64476e-010 1 
4.46498e-010 -9.64261e-010 1 6.42855e-010 -1.25445e-009 1 1.2564e-009 -2.02557e-009 1 
0.0185483 -0.0163244 0.999695 5.40524e-009 -5.04151e-009 1 -0.0244938 -0.0010911 0.999699 
-5.27196e-009 -2.15717e-010 1 -1.27738e-009 -3.7774e-011 1 -7.26734e-010 -1.32449e-011 1 
-5.07823e-010 -3.49329e-012 1 -2.80807e-010 -7.47143e-011 1 -5.37762e-011 -2.6713e-010 1 